<?xml version='1.0' encoding='utf-8'?>
<VTKFile type="PolyData" version="0.1" byte_order="LittleEndian"><PolyData><Piece NumberOfPoints="1" NumberOfVerts="1" NumberOfLines="0" NumberOfStrips="0" NumberOfPolys="0"><PointData><DataArray type="Float64" Name="source_current_nA" format="ascii">1.000000000000e+00</DataArray><DataArray type="Int32" Name="source_index" format="ascii">0</DataArray></PointData><Points><DataArray type="Float64" NumberOfComponents="3" format="ascii">8.000000000000e+01 0.000000000000e+00 0.000000000000e+00</DataArray></Points><Verts><DataArray type="Int32" Name="connectivity" format="ascii">0</DataArray><DataArray type="Int32" Name="offsets" format="ascii">1</DataArray></Verts></Piece></PolyData></VTKFile>